cat /var/spool/sge/sharc-node044/active_jobs/2388.1/pe_hostfile
sharc-node044.shef.ac.uk 1 all.q@sharc-node044.shef.ac.uk UNDEFINED
sharc-node108.shef.ac.uk 15 all.q@sharc-node108.shef.ac.uk UNDEFINED
*******************************************
mpirun -np 16 gulp < ./example10.gin | tee ./example10.got
*******************************************
********************************************************************************
*                       GENERAL UTILITY LATTICE PROGRAM                        *
*                                 Julian Gale                                  *
*                      Nanochemistry Research Institute                        *
*                           Department of Chemistry                            *
*                    Curtin University, Western Australia                      *
********************************************************************************
* Version = 4.4.2 * Last modified = 20th June 2016                             *
********************************************************************************
*  optimise     - perform optimisation run                                     *
*  conp         - constant pressure calculation                                *
*  property     - calculate properties for final geometry                      *
*  molecule     - molecule option activated, Coulomb subtract within molecule  *
*  conjugate    - use conjugate gradients minimiser                            *
********************************************************************************
* example of a molecular crystal - urea                                        *
********************************************************************************


  Job Started  at 16:29.41 21st December   2016                               

  Number of CPUs =    16

  Host name      = sharc-node044.shef.ac.uk                


  Total number of configurations input =   1

********************************************************************************
*  Input for Configuration =   1                                               *
********************************************************************************

  Formula = C2O2N4H8                                                    

  Number of irreducible atoms/shells =      16


  Total number atoms/shells =      16

  Dimensionality = 3               :  Bulk   



  Cartesian lattice vectors (Angstroms) :

        5.550830    0.000000    0.000000
        0.000019    5.550830    0.000000
        0.000003   -0.000003    4.695612

  Cell parameters (Angstroms/Degrees):

  a =       5.5508    alpha =  90.0000
  b =       5.5508    beta  =  90.0000
  c =       4.6956    gamma =  89.9998

  Initial cell volume =         144.679853 Angs**3

  Temperature of configuration =  0.000     K 

  Pressure of configuration =         0.000 GPa 

  Fractional coordinates of asymmetric unit :

--------------------------------------------------------------------------------
   No.  Atomic       x           y          z         Charge      Occupancy
        Label      (Frac)      (Frac)     (Frac)        (e)         (Frac)  
--------------------------------------------------------------------------------
      1 C     c    0.000000    0.500000    0.326000     0.38000    1.000000    
      2 C     c    0.499999 *  0.000001 *  0.615026 *   0.38000    1.000000    
      3 O     c    0.000000 *  0.500000 *  0.588166 *  -0.38000    1.000000    
      4 O     c    0.500000 *  1.000000 *  0.352857 *  -0.38000    1.000000    
      5 N     c    0.142932 *  0.642932 *  0.181010 *  -0.83000    1.000000    
      6 N     c    0.857068 *  0.357068 *  0.181010 *  -0.83000    1.000000    
      7 N     c    0.642933 *  0.857067 *  0.760014 *  -0.83000    1.000000    
      8 N     c    0.357068 *  0.142932 *  0.760013 *  -0.83000    1.000000    
      9 H     c    0.261677 *  0.761677 *  0.277315 *   0.41500    1.000000    
     10 H     c    0.738323 *  0.238323 *  0.277315 *   0.41500    1.000000    
     11 H     c    0.761678 *  0.738322 *  0.663710 *   0.41500    1.000000    
     12 H     c    0.238322 *  0.261678 *  0.663710 *   0.41500    1.000000    
     13 H     c    0.137859 *  0.637859 *  0.960432 *   0.41500    1.000000    
     14 H     c    0.862141 *  0.362141 *  0.960432 *   0.41500    1.000000    
     15 H     c    0.637858 *  0.862142 *  0.980591 *   0.41500    1.000000    
     16 H     c    0.362141 *  0.137859 *  0.980592 *   0.41500    1.000000    
--------------------------------------------------------------------------------



  Molecule list generated from bond lengths :

  Total number of molecules =     2

--------------------------------------------------------------------------------
Molecule No./:  Atoms
Periodicity  :  
--------------------------------------------------------------------------------
     1  0    : C    c     1 O    c     3 N    c     5 N    c     6 H    c     9
             : H    c    10 H    c    13 H    c    14
     2  0    : C    c     2 O    c     4 N    c     7 N    c     8 H    c    11
             : H    c    12 H    c    15 H    c    16
--------------------------------------------------------------------------------


********************************************************************************
*  General input information                                                   *
********************************************************************************

  Species output for all configurations : 

--------------------------------------------------------------------------------
  Species    Type    Atomic    Atomic    Charge       Radii (Angs)     Library
                     Number     Mass       (e)     Cova   Ionic  VDW   Symbol
--------------------------------------------------------------------------------
    C        Core        6      12.01   0.380000   0.770  0.000  1.530          
    O        Core        8      16.00  -0.380000   0.730  0.000  1.360          
    N        Core        7      14.01  -0.830000   0.750  0.000  1.480          
    H        Core        1       1.01   0.415000   0.370  0.000  1.080          
--------------------------------------------------------------------------------


  Lattice summation method               =    Ewald          (3-D)
                                         =    Parry          (2-D)
                                         =    Saunders et al (1-D)
  Accuracy factor for lattice sums       =   12.000


  Time limit = Infinity

  Maximum range for interatomic potentials =    100000.000000 Angstroms

  C6 terms to be calculated in real and reciprocal space 

  Intramolecular potentials :

--------------------------------------------------------------------------------
Atom  Types   Potential         A         B         C         D     Cutoffs(Ang)
  1     2                                                            Min    Max 
--------------------------------------------------------------------------------
C    c O    c Morse          6.29      2.06      1.23      0.00     0.000  1.600
C    c N    c Morse          4.21      2.00      1.32      0.00     0.000  1.600
H    c N    c Morse          3.82      2.28      1.03      0.00     0.000  1.600
--------------------------------------------------------------------------------

  Intermolecular potentials :

--------------------------------------------------------------------------------
Atom  Types   Potential         A         B         C         D     Cutoffs(Ang)
  1     2                                                            Min    Max 
--------------------------------------------------------------------------------
C    c O    c Lennard 12  6 0.390E+05  35.3      0.00      0.00     0.000 40.000
C    c N    c Lennard 12  6 0.112E+06  55.4      0.00      0.00     0.000 40.000
O    c O    c Lennard 12  6 0.118E+05  21.6      0.00      0.00     0.000 40.000
N    c O    c Lennard 12  6 0.341E+05  34.0      0.00      0.00     0.000 40.000
N    c N    c Lennard 12  6 0.983E+05  53.4      0.00      0.00     0.000 40.000
C    c C    c Lennard 12  6 0.129E+06  57.5      0.00      0.00     0.000 40.000
--------------------------------------------------------------------------------

  General Three-body potentials :

  Harmonic form:

--------------------------------------------------------------------------------
Atom    Atom    Atom           Force Constants            Theta     Cutoffs  
  1       2       3     (eVrad**-2/eVrad**-3/eVrad**-4)   (deg)  1-2  1-3  2-3
--------------------------------------------------------------------------------
C     c N     c O     c  5.897        0.0000    0.0000   121.000 0.00 0.00 0.00
                                                                 1.60 1.60 3.00
N     c H     c C     c  3.252        0.0000    0.0000   120.000 0.00 0.00 0.00
                                                                 1.40 1.60 2.60
N     c H     c H     c  2.862        0.0000    0.0000   120.000 0.00 0.00 0.00
                                                                 1.40 1.40 2.30
C     c N     c N     c  8.846        0.0000    0.0000   118.000 0.00 0.00 0.00
                                                                 1.60 1.60 2.80
--------------------------------------------------------------------------------

  General Four-body potentials :

  Standard form:

--------------------------------------------------------------------------------
         Atom Types             Force cst Sign Phase Phi0         Cutoffs
   1       2       3       4       (eV)                     1-2  2-3  3-4  4-1
--------------------------------------------------------------------------------
O     c C     c N     c H     c  0.2602     -   2     0.00  1.40 1.40 1.30 0.00
N     c C     c N     c H     c  0.2170E-02 -   2     0.00  1.60 1.60 1.30 0.00
O     c C     c N     c N     c  0.4340     -   2     0.00  1.60 1.60 3.00 0.00
--------------------------------------------------------------------------------


!!!!!!!!!!!!!!!!!!!!!!!!!!!!!!!!!!!!!!!!!!!!!!!!!!!!!!!!!!!!!!!!!!!!!!!!!!!!!!!!
!! ERROR : second derivatives unavailable in parallel
!!!!!!!!!!!!!!!!!!!!!!!!!!!!!!!!!!!!!!!!!!!!!!!!!!!!!!!!!!!!!!!!!!!!!!!!!!!!!!!!


 Program terminated by processor     0 in        methodok

*******************************************
mpirun -np 16 gulp < ./example11.gin | tee ./example11.got
*******************************************
********************************************************************************
*                       GENERAL UTILITY LATTICE PROGRAM                        *
*                                 Julian Gale                                  *
*                      Nanochemistry Research Institute                        *
*                           Department of Chemistry                            *
*                    Curtin University, Western Australia                      *
********************************************************************************
* Version = 4.4.2 * Last modified = 20th June 2016                             *
********************************************************************************
*  optimise     - perform optimisation run                                     *
*  distance     - calculate distances                                          *
*  conjugate    - use conjugate gradients minimiser                            *
********************************************************************************
* Sodium ion migration in quartz : uses the translate option                   *
* to perform 2-D optimisation for sodium at intervals along                    *
* the channel within quartz structure                                          *
********************************************************************************


  Job Started  at 16:29.53 21st December   2016                               

  Number of CPUs =    16

  Host name      = sharc-node044.shef.ac.uk                


  Total number of configurations input =   1

********************************************************************************
*  Input for Configuration =   1                                               *
********************************************************************************

  Formula = Si2AlNaO6                                                   

  Number of irreducible atoms/shells =      16


  Total number atoms/shells =      16

  Dimensionality = 3               :  Bulk   



  Cartesian lattice vectors (Angstroms) :

        4.914730    0.000000    0.000000
       -2.457365    4.256281    0.000000
        0.000000    0.000000    5.406570

  Cell parameters (Angstroms/Degrees):

  a =       4.9147    alpha =  90.0000
  b =       4.9147    beta  =  90.0000
  c =       5.4066    gamma = 120.0000

  Initial cell volume =         113.097184 Angs**3

  Temperature of configuration =  0.000     K 

  Pressure of configuration =         0.000 GPa 

  Fractional coordinates of asymmetric unit :

--------------------------------------------------------------------------------
   No.  Atomic       x           y          z         Charge      Occupancy
        Label      (Frac)      (Frac)     (Frac)        (e)         (Frac)  
--------------------------------------------------------------------------------
      1 Si    c    0.000000    0.468200    0.666666     4.00000    1.000000    
      2 Si    c    0.562283 *  0.553474 *  0.985986 *   4.00000    1.000000    
      3 Al    c    0.445925 *  0.991213 *  0.348165 *   3.00000    1.000000    
      4 Na    c    0.996987 *  0.272679 *  0.172946     1.00000    1.000000    
      5 O     c    0.442025 *  0.289142 *  0.194695 *   0.86902    1.000000    
      6 O     c    0.727571 *  0.131612 *  0.581260 *   0.86902    1.000000    
      7 O     c    0.900494 *  0.614677 *  0.895918 *   0.86902    1.000000    
      8 O     c    0.089785 *  0.698420 *  0.439177 *   0.86902    1.000000    
      9 O     c    0.574325 *  0.846687 *  0.110388 *   0.86902    1.000000    
     10 O     c    0.293304 *  0.427050 *  0.765705 *   0.86902    1.000000    
     11 O     s    0.451160 *  0.296281 *  0.182836 *  -2.86902    1.000000    
     12 O     s    0.741396 *  0.160744 *  0.575279 *  -2.86902    1.000000    
     13 O     s    0.874954 *  0.591869 *  0.883898 *  -2.86902    1.000000    
     14 O     s    0.104617 *  0.690857 *  0.457113 *  -2.86902    1.000000    
     15 O     s    0.569630 *  0.824747 *  0.110755 *  -2.86902    1.000000    
     16 O     s    0.289597 *  0.442377 *  0.777587 *  -2.86902    1.000000    
--------------------------------------------------------------------------------



  Distance calculation :


  Cutoff for distances  =      2.500000 Angstroms

--------------------------------------------------------------------------------
  Asymmetric unit site  Full lattice sites    No.  Distance      No.  Distance
      No.   At.No.            At.No.                (Angs)             (Angs) 
--------------------------------------------------------------------------------
       1   Si    core        O     core         1    1.5775        1    1.5898
                                                1    1.6266        1    1.6423
                             O     shell        1    1.4774        1    1.4907
                                                1    1.5812        1    1.6069
--------------------------------------------------------------------------------
       2   Si    core        O     core         1    1.5644        1    1.5945
                                                1    1.6095        1    1.6525
                             O     shell        1    1.4784        1    1.5292
                                                1    1.5530        1    1.6223
--------------------------------------------------------------------------------
       3   Al    core        O     core         1    1.6905        1    1.6914
                                                1    1.7331        1    1.7393
                             O     shell        1    1.6922        1    1.7347
                                                1    1.7609        1    1.7844
--------------------------------------------------------------------------------
       4   Na    core        O     core         1    2.1127        1    2.1511
                                                1    2.3882        1    2.4679
                                                1    2.4878
                             O     shell        1    2.1771        1    2.1788
                                                1    2.4036        1    2.4334
                                                1    2.4766        1    2.4907
--------------------------------------------------------------------------------
       5   O     core        Na    core         1    2.1511
                             Al    core         1    1.6914
                             Si    core         1    1.5945
                             O     shell        1    0.0760        1    2.4244
--------------------------------------------------------------------------------
       6   O     core        Na    core         1    2.4878
                             Al    core         1    1.7393
                             Si    core         1    1.5898
                             O     shell        1    0.1282
--------------------------------------------------------------------------------
       7   O     core        Na    core         1    2.4679
                             Si    core         1    1.6095        1    1.6266
                             O     shell        1    0.1359
--------------------------------------------------------------------------------
       8   O     core        Na    core         1    2.3882
                             Al    core         1    1.6905
                             Si    core         1    1.5775
                             O     shell        1    0.1371        1    2.4355
--------------------------------------------------------------------------------
       9   O     core        Na    core         1    2.1127
                             Al    core         1    1.7331
                             Si    core         1    1.5644
                             O     shell        1    0.0984        1    2.4900
--------------------------------------------------------------------------------
      10   O     core        Si    core         1    1.6423        1    1.6525
                             O     shell        1    0.1073
--------------------------------------------------------------------------------
      11   O     shell       Na    core         1    2.1771
                             Al    core         1    1.7347
                             Si    core         1    1.5292
                             O     core         1    0.0760        1    2.4900
                             O     shell        1    2.3926        1    2.4566
--------------------------------------------------------------------------------
      12   O     shell       Na    core         1    2.4334
                             Al    core         1    1.7609
                             Si    core         1    1.4907
                             O     core         1    0.1282        1    2.4355
                             O     shell        1    2.3941
--------------------------------------------------------------------------------
      13   O     shell       Na    core         1    2.4907
                             Si    core         1    1.5530        1    1.5812
                             O     core         1    0.1359
                             O     shell        1    2.4566
--------------------------------------------------------------------------------
      14   O     shell       Na    core         1    2.4036
                             Al    core         1    1.6922
                             Si    core         1    1.4774
                             O     core         1    0.1371
                             O     shell        1    2.3941
--------------------------------------------------------------------------------
      15   O     shell       Na    core         1    2.1788
                             Al    core         1    1.7844
                             Si    core         1    1.4784
                             O     core         1    0.0984        1    2.4244
                             O     shell        1    2.3926        1    2.4666
--------------------------------------------------------------------------------
      16   O     shell       Na    core         1    2.4766
                             Si    core         1    1.6069        1    1.6223
                             O     core         1    0.1073
                             O     shell        1    2.4666
--------------------------------------------------------------------------------



********************************************************************************
*  General input information                                                   *
********************************************************************************

  Species output for all configurations : 

--------------------------------------------------------------------------------
  Species    Type    Atomic    Atomic    Charge       Radii (Angs)     Library
                     Number     Mass       (e)     Cova   Ionic  VDW   Symbol
--------------------------------------------------------------------------------
    Na       Core       11      22.99   1.000000   0.970  0.000  2.300          
    Al       Core       13      26.98   3.000000   1.350  0.000  2.050          
    Si       Core       14      28.09   4.000000   1.200  0.000  2.100          
    O        Core        8      16.00   0.869020   0.730  0.000  1.360          
    O        Shell       8       0.00  -2.869020   0.730  0.000  1.360          
--------------------------------------------------------------------------------


  Lattice summation method               =    Ewald          (3-D)
                                         =    Parry          (2-D)
                                         =    Saunders et al (1-D)
  Accuracy factor for lattice sums       =   12.000


  Time limit = Infinity

  Maximum range for interatomic potentials =    100000.000000 Angstroms

  C6 terms to be calculated in real and reciprocal space 

  General interatomic potentials :

--------------------------------------------------------------------------------
Atom  Types   Potential         A         B         C         D     Cutoffs(Ang)
  1     2                                                            Min    Max 
--------------------------------------------------------------------------------
Na   c O    s Buckingham    0.123E+04 0.307      0.00      0.00     0.000 10.000
Al   c O    s Buckingham    0.146E+04 0.299      0.00      0.00     0.000 10.000
Si   c O    s Buckingham    0.128E+04 0.321      10.7      0.00     0.000 12.000
O    s O    s Buckingham    0.228E+05 0.149      27.9      0.00     0.000 12.000
O    c O    s Spring (c-s)   74.9      0.00      0.00      0.00     0.000  0.800
--------------------------------------------------------------------------------

  General Three-body potentials :

  Harmonic form:

--------------------------------------------------------------------------------
Atom    Atom    Atom           Force Constants            Theta     Cutoffs  
  1       2       3     (eVrad**-2/eVrad**-3/eVrad**-4)   (deg)  1-2  1-3  2-3
--------------------------------------------------------------------------------
Si    c O     s O     s  2.097        0.0000    0.0000   109.470 0.00 0.00 0.00
                                                                 1.90 1.90 3.50
Al    c O     s O     s  2.097        0.0000    0.0000   109.470 0.00 0.00 0.00
                                                                 1.90 1.90 3.50
--------------------------------------------------------------------------------


!!!!!!!!!!!!!!!!!!!!!!!!!!!!!!!!!!!!!!!!!!!!!!!!!!!!!!!!!!!!!!!!!!!!!!!!!!!!!!!!
!! ERROR : second derivatives unavailable in parallel
!!!!!!!!!!!!!!!!!!!!!!!!!!!!!!!!!!!!!!!!!!!!!!!!!!!!!!!!!!!!!!!!!!!!!!!!!!!!!!!!


 Program terminated by processor     0 in        methodok

*******************************************
mpirun -np 16 gulp < ./example12.gin | tee ./example12.got
*******************************************
********************************************************************************
*                       GENERAL UTILITY LATTICE PROGRAM                        *
*                                 Julian Gale                                  *
*                      Nanochemistry Research Institute                        *
*                           Department of Chemistry                            *
*                    Curtin University, Western Australia                      *
********************************************************************************
* Version = 4.4.2 * Last modified = 20th June 2016                             *
********************************************************************************
*  optimise     - perform optimisation run                                     *
*  conp         - constant pressure calculation                                *
*  property     - calculate properties for final geometry                      *
*  conjugate    - use conjugate gradients minimiser                            *
********************************************************************************

  Job Started  at 16:30.05 21st December   2016                               

  Number of CPUs =    16

  Host name      = sharc-node044.shef.ac.uk                


  Total number of configurations input =   2

********************************************************************************
*  Input for Configuration =   1 : chabazite                                   *
********************************************************************************

  Formula = Si12O24                                                     

  Number of irreducible atoms/shells =       9


  Total number atoms/shells =      60

  Dimensionality = 3               :  Bulk   


  Symmetry :

  Crystal family                   :  Hexagonal   
  Crystal class  (Groth - 1921)    :  Ditrigonal Scalenohedral             

  Space group (centrosymmetric)    :  R -3 M          

  Patterson group                  :  R -3 m   

  Cartesian lattice vectors (Angstroms) :

        6.901286    3.984460    5.025094
       -6.901286    3.984460    5.025094
        0.000000   -7.968919    5.025094

  Cell parameters (Angstroms/Degrees):

  a =       9.4210    alpha =  94.2000
  b =       9.4210    beta  =  94.2000
  c =       9.4210    gamma =  94.2000

  Initial cell volume =         829.077085 Angs**3

  Temperature of configuration =  0.000     K 

  Pressure of configuration =         0.000 GPa 

  Fractional coordinates of asymmetric unit :

--------------------------------------------------------------------------------
   No.  Atomic       x           y          z         Charge      Occupancy
        Label      (Frac)      (Frac)     (Frac)        (e)         (Frac)  
--------------------------------------------------------------------------------
      1 Si    c    0.102192 *  0.331083 *  0.876169 *   4.00000    1.000000    
      2 O1    c    0.261344 *  0.738656    0.000000     0.86902    1.000000    
      3 O2    c    0.141729 *  0.858271    0.500000     0.86902    1.000000    
      4 O3    c    0.246729 *  0.246729    0.890290 *   0.86902    1.000000    
      5 O4    c    0.018968 *  0.018968    0.314454 *   0.86902    1.000000    
      6 O1    s    0.254283 *  0.745717    0.000000    -2.86902    1.000000    
      7 O2    s    0.135829 *  0.864171    0.500000    -2.86902    1.000000    
      8 O3    s    0.240510 *  0.240510    0.887279 *  -2.86902    1.000000    
      9 O4    s    0.012617 *  0.012617    0.318045 *  -2.86902    1.000000    
--------------------------------------------------------------------------------


  Constraints : 

--------------------------------------------------------------------------------
  Constraint no.      Unconstrained     Constrained    Coefficient    Offset
                         Variable         Variable
--------------------------------------------------------------------------------
           1              Strain 1        Strain 2       1.00000      0.0000
           2                 4 x             4 y         2.00000     -1.0000
           3                 5 x             5 y         2.00000     -1.0000
           4                 8 x             8 y         2.00000     -1.0000
           5                 9 x             9 y         2.00000     -1.0000
--------------------------------------------------------------------------------


********************************************************************************
*  Input for Configuration =   2 : quartz                                      *
********************************************************************************

  Formula = Si3O6                                                       

  Number of irreducible atoms/shells =       3


  Total number atoms/shells =      15

  Dimensionality = 3               :  Bulk   


  Symmetry :

  Crystal family                   :  Hexagonal   
  Crystal class  (Groth - 1921)    :  Trigonal Trapezohedral               

  Space group (noncentrosymmetric) :  P 31 2 1        

  Patterson group                  :  P -3 m 1 

  Cartesian lattice vectors (Angstroms) :

        4.914730    0.000000    0.000000
       -2.457365    4.256281    0.000000
        0.000000    0.000000    5.406570

  Cell parameters (Angstroms/Degrees):

  a =       4.9147    alpha =  90.0000
  b =       4.9147    beta  =  90.0000
  c =       5.4066    gamma = 120.0000

  Initial cell volume =         113.097184 Angs**3

  Temperature of configuration =  0.000     K 

  Pressure of configuration =         0.000 GPa 

  Fractional coordinates of asymmetric unit :

--------------------------------------------------------------------------------
   No.  Atomic       x           y          z         Charge      Occupancy
        Label      (Frac)      (Frac)     (Frac)        (e)         (Frac)  
--------------------------------------------------------------------------------
      1 Si    c    0.468200 *  0.000000    0.333333     4.00000    1.000000    
      2 O     c    0.413100 *  0.266100 *  0.213100 *   0.86902    1.000000    
      3 O     s    0.431522 *  0.266445 *  0.204492 *  -2.86902    1.000000    
--------------------------------------------------------------------------------


  Constraints : 

--------------------------------------------------------------------------------
  Constraint no.      Unconstrained     Constrained    Coefficient    Offset
                         Variable         Variable
--------------------------------------------------------------------------------
           1              Strain 1        Strain 2       1.00000      0.0000
--------------------------------------------------------------------------------


********************************************************************************
*  General input information                                                   *
********************************************************************************

  Species output for all configurations : 

--------------------------------------------------------------------------------
  Species    Type    Atomic    Atomic    Charge       Radii (Angs)     Library
                     Number     Mass       (e)     Cova   Ionic  VDW   Symbol
--------------------------------------------------------------------------------
    Si       Core       14      28.09   4.000000   1.200  0.000  2.100          
    O        Core        8      16.00   0.869020   0.730  0.000  1.360          
    O        Shell       8       0.00  -2.869020   0.730  0.000  1.360          
--------------------------------------------------------------------------------


  Lattice summation method               =    Ewald          (3-D)
                                         =    Parry          (2-D)
                                         =    Saunders et al (1-D)
  Accuracy factor for lattice sums       =   12.000


  Time limit = Infinity

  Maximum range for interatomic potentials =    100000.000000 Angstroms

  General interatomic potentials :

--------------------------------------------------------------------------------
Atom  Types   Potential         A         B         C         D     Cutoffs(Ang)
  1     2                                                            Min    Max 
--------------------------------------------------------------------------------
Si   c O    s Buckingham    0.128E+04 0.321      10.7      0.00     0.000 12.000
O    s O    s Buckingham    0.228E+05 0.149      27.9      0.00     0.000 12.000
O    c O    s Spring (c-s)   74.9      0.00      0.00      0.00     0.000  0.800
--------------------------------------------------------------------------------

  General Three-body potentials :

  Harmonic form:

--------------------------------------------------------------------------------
Atom    Atom    Atom           Force Constants            Theta     Cutoffs  
  1       2       3     (eVrad**-2/eVrad**-3/eVrad**-4)   (deg)  1-2  1-3  2-3
--------------------------------------------------------------------------------
Si    c O     s O     s  2.097        0.0000    0.0000   109.470 0.00 0.00 0.00
                                                                 2.20 2.20 3.80
--------------------------------------------------------------------------------


!!!!!!!!!!!!!!!!!!!!!!!!!!!!!!!!!!!!!!!!!!!!!!!!!!!!!!!!!!!!!!!!!!!!!!!!!!!!!!!!
!! ERROR : second derivatives unavailable in parallel
!!!!!!!!!!!!!!!!!!!!!!!!!!!!!!!!!!!!!!!!!!!!!!!!!!!!!!!!!!!!!!!!!!!!!!!!!!!!!!!!


 Program terminated by processor     0 in        methodok

*******************************************
mpirun -np 16 gulp < ./example13.gin | tee ./example13.got
*******************************************
********************************************************************************
*                       GENERAL UTILITY LATTICE PROGRAM                        *
*                                 Julian Gale                                  *
*                      Nanochemistry Research Institute                        *
*                           Department of Chemistry                            *
*                    Curtin University, Western Australia                      *
********************************************************************************
* Version = 4.4.2 * Last modified = 20th June 2016                             *
********************************************************************************
*  optimise     - perform optimisation run                                     *
*  conp         - constant pressure calculation                                *
*  property     - calculate properties for final geometry                      *
*  conjugate    - use conjugate gradients minimiser                            *
********************************************************************************
* alumina  - example of how to use a library to assign                         *
* the potentials                                                               *
********************************************************************************


  Job Started  at 16:30.17 21st December   2016                               

  Number of CPUs =    16

  Host name      = sharc-node044.shef.ac.uk                


  Total number of configurations input =   1

********************************************************************************
*  Input for Configuration =   1                                               *
********************************************************************************

  Formula = Al4O6                                                       

  Number of irreducible atoms/shells =       4


  Total number atoms/shells =      20

  Dimensionality = 3               :  Bulk   


  Symmetry :

  Crystal family                   :  Hexagonal   
  Crystal class  (Groth - 1921)    :  Ditrigonal Scalenohedral             

  Space group (centrosymmetric)    :  R -3 C          

  Patterson group                  :  R -3 m   

  Cartesian lattice vectors (Angstroms) :

        2.380100    1.374151    4.331100
       -2.380100    1.374151    4.331100
        0.000000   -2.748303    4.331100

  Primitive cell parameters :            Full cell parameters :

  a =   5.1295    alpha =  55.2915       a =   4.7602    alpha =  90.0000
  b =   5.1295    beta  =  55.2915       b =   4.7602    beta  =  90.0000
  c =   5.1295    gamma =  55.2915       c =  12.9933    gamma = 120.0000

  Initial volumes (Angstroms**3):

  Primitive cell =          84.992234    Full cell =         254.976701

  Temperature of configuration =  0.000     K 

  Pressure of configuration =         0.000 GPa 

  Fractional coordinates of asymmetric unit :

--------------------------------------------------------------------------------
   No.  Atomic       x           y          z         Charge      Occupancy
        Label      (Frac)      (Frac)     (Frac)        (e)         (Frac)  
--------------------------------------------------------------------------------
      1 Al    c    0.000000    0.000000    0.352160 *   0.04300    1.000000    
      2 O     c    0.306240 *  0.000000    0.250000     0.51300    1.000000    
      3 Al    s    0.000000    0.000000    0.352160 *   2.95700    1.000000    
      4 O     s    0.306240 *  0.000000    0.250000    -2.51300    1.000000    
--------------------------------------------------------------------------------


  Constraints : 

--------------------------------------------------------------------------------
  Constraint no.      Unconstrained     Constrained    Coefficient    Offset
                         Variable         Variable
--------------------------------------------------------------------------------
           1              Strain 1        Strain 2       1.00000      0.0000
--------------------------------------------------------------------------------


********************************************************************************
*  General input information                                                   *
********************************************************************************

  Species output for all configurations : 

--------------------------------------------------------------------------------
  Species    Type    Atomic    Atomic    Charge       Radii (Angs)     Library
                     Number     Mass       (e)     Cova   Ionic  VDW   Symbol
--------------------------------------------------------------------------------
    Al       Core       13      26.98   0.043000   1.350  0.000  2.050          
    O        Core        8      16.00   0.513000   0.730  0.000  1.360          
    Al       Shell      13       0.00   2.957000   1.350  0.000  2.050          
    O        Shell       8       0.00  -2.513000   0.730  0.000  1.360          
--------------------------------------------------------------------------------


  Lattice summation method               =    Ewald          (3-D)
                                         =    Parry          (2-D)
                                         =    Saunders et al (1-D)
  Accuracy factor for lattice sums       =   12.000


  Time limit = Infinity

  Maximum range for interatomic potentials =    100000.000000 Angstroms

  General interatomic potentials :

--------------------------------------------------------------------------------
Atom  Types   Potential         A         B         C         D     Cutoffs(Ang)
  1     2                                                            Min    Max 
--------------------------------------------------------------------------------
O    s Al   s Buckingham    0.241E+04 0.265      0.00      0.00     0.000 10.000
O    s O    s Buckingham     25.4     0.694      32.3      0.00     0.000 12.000
Al   c Al   s Spring (c-s)   404.      0.00      0.00      0.00     0.000  0.800
O    c O    s Spring (c-s)   20.5      0.00      0.00      0.00     0.000  0.800
--------------------------------------------------------------------------------


!!!!!!!!!!!!!!!!!!!!!!!!!!!!!!!!!!!!!!!!!!!!!!!!!!!!!!!!!!!!!!!!!!!!!!!!!!!!!!!!
!! ERROR : second derivatives unavailable in parallel
!!!!!!!!!!!!!!!!!!!!!!!!!!!!!!!!!!!!!!!!!!!!!!!!!!!!!!!!!!!!!!!!!!!!!!!!!!!!!!!!


 Program terminated by processor     0 in        methodok

*******************************************
mpirun -np 16 gulp < ./example14.gin | tee ./example14.got
*******************************************
********************************************************************************
*                       GENERAL UTILITY LATTICE PROGRAM                        *
*                                 Julian Gale                                  *
*                      Nanochemistry Research Institute                        *
*                           Department of Chemistry                            *
*                    Curtin University, Western Australia                      *
********************************************************************************
* Version = 4.4.2 * Last modified = 20th June 2016                             *
********************************************************************************
*  fit          - perform fitting run                                          *
*  conp         - constant pressure calculation                                *
*  relax        - relax structure during fitting                               *
*  conjugate    - use conjugate gradients minimiser                            *
********************************************************************************
* fit the structure of quartz using relax fitting                              *
* as opposed to simul fitting as used in example2                              *
********************************************************************************


  Job Started  at 16:30.29 21st December   2016                               

  Number of CPUs =    16

  Host name      = sharc-node044.shef.ac.uk                


  Total number of configurations input =   1

********************************************************************************
*  Input for Configuration =   1                                               *
********************************************************************************

  Formula = Si3O6                                                       

  Number of irreducible atoms/shells =       3


  Total number atoms/shells =      15

  Dimensionality = 3               :  Bulk   


  Symmetry :

  Crystal family                   :  Hexagonal   
  Crystal class  (Groth - 1921)    :  Trigonal Trapezohedral               

  Space group (noncentrosymmetric) :  P 31 2 1        

  Patterson group                  :  P -3 m 1 

  Cartesian lattice vectors (Angstroms) :

        4.914730    0.000000    0.000000
       -2.457365    4.256281    0.000000
        0.000000    0.000000    5.406570

  Cell parameters (Angstroms/Degrees):

  a =       4.9147    alpha =  90.0000
  b =       4.9147    beta  =  90.0000
  c =       5.4066    gamma = 120.0000

  Initial cell volume =         113.097184 Angs**3

  Temperature of configuration =  0.000     K 

  Pressure of configuration =         0.000 GPa 

  Fractional coordinates of asymmetric unit :

--------------------------------------------------------------------------------
   No.  Atomic       x           y          z         Charge      Occupancy
        Label      (Frac)      (Frac)     (Frac)        (e)         (Frac)  
--------------------------------------------------------------------------------
      1 Si    c    0.468200 *  0.000000    0.333333     4.00000    1.000000    
      2 O     c    0.413100 *  0.266100 *  0.213100 *   0.86902    1.000000    
      3 O     s    0.431813 *  0.264902 *  0.204106 *  -2.86902    1.000000    
--------------------------------------------------------------------------------


  Constraints : 

--------------------------------------------------------------------------------
  Constraint no.      Unconstrained     Constrained    Coefficient    Offset
                         Variable         Variable
--------------------------------------------------------------------------------
           1              Strain 1        Strain 2       1.00000      0.0000
--------------------------------------------------------------------------------


********************************************************************************
*  General input information                                                   *
********************************************************************************

  Species output for all configurations : 

--------------------------------------------------------------------------------
  Species    Type    Atomic    Atomic    Charge       Radii (Angs)     Library
                     Number     Mass       (e)     Cova   Ionic  VDW   Symbol
--------------------------------------------------------------------------------
    Si       Core       14      28.09   4.000000   1.200  0.000  2.100          
    O        Core        8      16.00   0.869020   0.730  0.000  1.360          
    O        Shell       8       0.00  -2.869020   0.730  0.000  1.360          
--------------------------------------------------------------------------------


  Lattice summation method               =    Ewald          (3-D)
                                         =    Parry          (2-D)
                                         =    Saunders et al (1-D)
  Accuracy factor for lattice sums       =   12.000


  Time limit = Infinity

  Maximum range for interatomic potentials =    100000.000000 Angstroms

  General interatomic potentials :

--------------------------------------------------------------------------------
Atom  Types   Potential         A         B         C         D     Cutoffs(Ang)
  1     2                                                            Min    Max 
--------------------------------------------------------------------------------
Si   c O    s Buckingham    0.128E+04 0.321      10.7      0.00     0.000 12.000
O    s O    s Buckingham    0.228E+05 0.149      27.9      0.00     0.000 12.000
O    c O    s Spring (c-s)   74.9      0.00      0.00      0.00     0.000  0.800
--------------------------------------------------------------------------------

  General Three-body potentials :

  Harmonic form:

--------------------------------------------------------------------------------
Atom    Atom    Atom           Force Constants            Theta     Cutoffs  
  1       2       3     (eVrad**-2/eVrad**-3/eVrad**-4)   (deg)  1-2  1-3  2-3
--------------------------------------------------------------------------------
Si    c O     s O     s  2.097        0.0000    0.0000   109.470 0.00 0.00 0.00
                                                                 1.80 1.80 3.50
--------------------------------------------------------------------------------


  Number of variables   =    1
  Number of observables =   13

--------------------------------------------------------------------------------
   Observable no.  Type           Observable    Weight       Reference  Confign 
--------------------------------------------------------------------------------
          1        Elastic Const    86.830000        0.0100    1  1        1
          2        Elastic Const   104.980000        0.0100    3  3        1
          3        Elastic Const    58.260000        0.0100    4  4        1
          4        Elastic Const    39.870000        0.0100    6  6        1
          5        Static Di C       4.520000        1.0000    1  1        1
          6        Static Di C       4.640000        1.0000    3  3        1
          7        High Freq DiC     2.400000        1.0000    1  1        1
          8        Structure         4.914730     1000.0000    a           1
          9        Structure         5.406570     1000.0000    c           1
         10        Structure         0.468200    10000.0000    1 x         1
         11        Structure         0.413100    10000.0000    2 x         1
         12        Structure         0.266100    10000.0000    2 y         1
         13        Structure         0.213100    10000.0000    2 z         1
--------------------------------------------------------------------------------

  Variables :

--------------------------------------------------------------------------------
     Parameter No.       Parameter Value          Parameter Type  Species
--------------------------------------------------------------------------------
             1               1283.037674          Buckingham A   
--------------------------------------------------------------------------------

  Symmetry constraints used for fitting
  First derivatives of residuals to be used in fitting

  Maximum no. of cycles   =       5000
  Maximum step size       =  1000.0000
  Tolerance on parameters =  0.0000100
  Tolerance on function   =  0.0000100
  Tolerance on gradient   =  0.0001000
  Differencing interval   =  0.0001000

  Start of fitting :

  Cycle:      0  Sum sqs:      16.992668  Gnorm:    887.289227  CPU:    0.911
  ** Hessian calculated **
  Cycle:      1  Sum sqs:       3.601201  Gnorm:  15528.775732  CPU:    1.300
  Cycle:      2  Sum sqs:       2.959253  Gnorm:     11.353770  CPU:    1.775
  Cycle:      3  Sum sqs:       2.959222  Gnorm:     49.529798  CPU:    2.120
  Cycle:      4  Sum sqs:       2.959215  Gnorm:     63.189109  CPU:    2.337
  Cycle:      5  Sum sqs:       2.959209  Gnorm:     66.683438  CPU:    2.547


  **** Fit completed successfully ****


  Final sum of squares =             2.959209

  Final gradient norm  =            66.683438


!!!!!!!!!!!!!!!!!!!!!!!!!!!!!!!!!!!!!!!!!!!!!!!!!!!!!!!!!!!!!!!!!!!!!!!!!!!!!!!!
!! WARNING : Not all configurations optimised successfully in relaxed fit
!!!!!!!!!!!!!!!!!!!!!!!!!!!!!!!!!!!!!!!!!!!!!!!!!!!!!!!!!!!!!!!!!!!!!!!!!!!!!!!!


  Final values of parameters :

--------------------------------------------------------------------------------
 Parameter No.    Parameter        Parameter      Parameter Type  Species
                  Original         Final                                 
--------------------------------------------------------------------------------
         1           1283.037674      1317.167788 Buckingham A   
--------------------------------------------------------------------------------


  Final values of numerical parameter gradients :

--------------------------------------------------------------------------------
     Parameter No.       Parameter Gradient      Parameter Type  Species
--------------------------------------------------------------------------------
             1                -66.683438          Buckingham A   
--------------------------------------------------------------------------------


  Final values of residuals :

--------------------------------------------------------------------------------
   Observable no.  Type            Observable   Calculated    Residual  Error(%)
--------------------------------------------------------------------------------
          1        Elastic Const     86.83000     88.99933      0.04706    2.498
          2        Elastic Const    104.98000    107.39236      0.05819    2.298
          3        Elastic Const     58.26000     47.22192      1.21839  -18.946
          4        Elastic Const     39.87000     37.74036      0.04535   -5.341
          5        Static Di C        4.52000      4.41074      0.01194   -2.417
          6        Static Di C        4.64000      4.69477      0.00300    1.180
          7        High Freq DiC      2.40000      2.04555      0.12563  -14.769
          8        Structure          4.91473      4.91231      0.00586   -0.049
          9        Structure          5.40657      5.42525      0.34876    0.345
         10        Structure          0.46820      0.46705      0.01313   -0.245
         11        Structure          0.41310      0.41042      0.07161   -0.648
         12        Structure          0.26610      0.27329      0.51683    2.702
         13        Structure          0.21310      0.22012      0.49345    3.296
--------------------------------------------------------------------------------

  Comparison of initial and final observables :

--------------------------------------------------------------------------------
   Observable no.  Type            Observable   Initial       Final             
--------------------------------------------------------------------------------
          1        Elastic Const     86.83000     94.72340     88.99933
          2        Elastic Const    104.98000    116.32297    107.39236
          3        Elastic Const     58.26000     50.06695     47.22192
          4        Elastic Const     39.87000     38.08441     37.74036
          5        Static Di C        4.52000      4.75356      4.41074
          6        Static Di C        4.64000      5.02656      4.69477
          7        High Freq DiC      2.40000      2.11970      2.04555
          8        Structure          4.91473      4.83253      4.91231
          9        Structure          5.40657      5.34325      5.42525
         10        Structure          0.46820      0.46368      0.46705
         11        Structure          0.41310      0.40817      0.41042
         12        Structure          0.26610      0.27869      0.27329
         13        Structure          0.21310      0.22486      0.22012
--------------------------------------------------------------------------------

  Maximum range for interatomic potentials =    100000.000000 Angstroms

  General interatomic potentials :

--------------------------------------------------------------------------------
Atom  Types   Potential         A         B         C         D     Cutoffs(Ang)
  1     2                                                            Min    Max 
--------------------------------------------------------------------------------
Si   c O    s Buckingham    0.132E+04 0.321      10.7      0.00     0.000 12.000
O    s O    s Buckingham    0.228E+05 0.149      27.9      0.00     0.000 12.000
O    c O    s Spring (c-s)   74.9      0.00      0.00      0.00     0.000  0.800
--------------------------------------------------------------------------------

  General Three-body potentials :

  Harmonic form:

--------------------------------------------------------------------------------
Atom    Atom    Atom           Force Constants            Theta     Cutoffs  
  1       2       3     (eVrad**-2/eVrad**-3/eVrad**-4)   (deg)  1-2  1-3  2-3
--------------------------------------------------------------------------------
Si    c O     s O     s  2.097        0.0000    0.0000   109.470 0.00 0.00 0.00
                                                                 1.80 1.80 3.50
--------------------------------------------------------------------------------



  Total time to end of fitting =       2.5780 seconds

********************************************************************************
*  Output for configuration   1                                                *
********************************************************************************


  Components of energy : 

--------------------------------------------------------------------------------
  Interatomic potentials     =         107.19180192 eV
  Three-body potentials      =           0.05967375 eV
  Monopole - monopole (real) =        -111.26563177 eV
  Monopole - monopole (recip)=        -379.17637423 eV
  Monopole - monopole (total)=        -490.44200600 eV
--------------------------------------------------------------------------------
  Total lattice energy       =        -383.19053033 eV
--------------------------------------------------------------------------------
  Total lattice energy       =          -36972.0286 kJ/(mole unit cells)
--------------------------------------------------------------------------------

  Peak dynamic memory used =       0.57 MB 


  Timing analysis for GULP :

--------------------------------------------------------------------------------
  Task / Subroutine                                          Time (Seconds)
--------------------------------------------------------------------------------
  Calculation of reciprocal space energy and derivatives          0.1340
  Calculation of reciprocal space energy using symmetry           0.5151
  Calculation of real space energy and derivatives                0.3684
  Calculation of real space energy using symmetry                 0.3746
  Calculation of three-body energy and derivatives                0.5626
  Calculation of matrix inversion                                 0.0002
  Sum of squares for fitting                                      1.7603
  Symmetry generation of equivalent positions                     0.0233
  Global summation overhead                                       0.9582
--------------------------------------------------------------------------------
  Total CPU time                                                  2.5790
--------------------------------------------------------------------------------


  Dump file written as example14.grs                                           



  **** GULP has completed with 1 warning - beware! ****

  Job Finished at 16:30.31 21st December   2016                               

*******************************************
mpirun -np 16 gulp < ./example15a.gin | tee ./example15a.got
*******************************************
********************************************************************************
*                       GENERAL UTILITY LATTICE PROGRAM                        *
*                                 Julian Gale                                  *
*                      Nanochemistry Research Institute                        *
*                           Department of Chemistry                            *
*                    Curtin University, Western Australia                      *
********************************************************************************
* Version = 4.4.2 * Last modified = 20th June 2016                             *
********************************************************************************
*  single       - perform a single point run                                   *
*  md           - perform molecular dynamics run                               *
*  conv         - constant volume calculation                                  *
*  conjugate    - use conjugate gradients minimiser                            *
********************************************************************************
* simple example of input for a molecular dynamics run                         *
* that is designed to run quickly, rather than accurately                      *
********************************************************************************


  Job Started  at 16:30.43 21st December   2016                               

  Number of CPUs =    16

  Host name      = sharc-node044.shef.ac.uk                


  Total number of configurations input =   1

********************************************************************************
*  Input for Configuration =   1                                               *
********************************************************************************

  Formula = Mg32O32                                                     

  Number of irreducible atoms/shells =      64


  Total number atoms/shells =      64

  Dimensionality = 3               :  Bulk   



  Supercell dimensions :  x =   2  y =   2  z =   2

  Cartesian lattice vectors (Angstroms) :

        8.423972    0.000000    0.000000
        0.000000    8.423972    0.000000
        0.000000    0.000000    8.423972

  Cell parameters (Angstroms/Degrees):

  a =       8.4240    alpha =  90.0000
  b =       8.4240    beta  =  90.0000
  c =       8.4240    gamma =  90.0000

  Initial cell volume =         597.792888 Angs**3

  Temperature of configuration =  300.0     K 

  Pressure of configuration =         0.000 GPa 

  Fractional coordinates of asymmetric unit :

--------------------------------------------------------------------------------
   No.  Atomic       x           y          z         Charge      Occupancy
        Label      (Frac)      (Frac)     (Frac)        (e)         (Frac)  
--------------------------------------------------------------------------------
      1 Mg    c    0.000000 *  0.000000 *  0.000000 *   2.00000    1.000000    
      2 Mg    c    0.000000 *  0.000000 *  0.500000 *   2.00000    1.000000    
      3 Mg    c    0.000000 *  0.500000 *  0.000000 *   2.00000    1.000000    
      4 Mg    c    0.000000 *  0.500000 *  0.500000 *   2.00000    1.000000    
      5 Mg    c    0.500000 *  0.000000 *  0.000000 *   2.00000    1.000000    
      6 Mg    c    0.500000 *  0.000000 *  0.500000 *   2.00000    1.000000    
      7 Mg    c    0.500000 *  0.500000 *  0.000000 *   2.00000    1.000000    
      8 Mg    c    0.500000 *  0.500000 *  0.500000 *   2.00000    1.000000    
      9 Mg    c    0.000000 *  0.250000 *  0.250000 *   2.00000    1.000000    
     10 Mg    c    0.000000 *  0.250000 *  0.750000 *   2.00000    1.000000    
     11 Mg    c    0.000000 *  0.750000 *  0.250000 *   2.00000    1.000000    
     12 Mg    c    0.000000 *  0.750000 *  0.750000 *   2.00000    1.000000    
     13 Mg    c    0.500000 *  0.250000 *  0.250000 *   2.00000    1.000000    
     14 Mg    c    0.500000 *  0.250000 *  0.750000 *   2.00000    1.000000    
     15 Mg    c    0.500000 *  0.750000 *  0.250000 *   2.00000    1.000000    
     16 Mg    c    0.500000 *  0.750000 *  0.750000 *   2.00000    1.000000    
     17 Mg    c    0.250000 *  0.000000 *  0.250000 *   2.00000    1.000000    
     18 Mg    c    0.250000 *  0.000000 *  0.750000 *   2.00000    1.000000    
     19 Mg    c    0.250000 *  0.500000 *  0.250000 *   2.00000    1.000000    
     20 Mg    c    0.250000 *  0.500000 *  0.750000 *   2.00000    1.000000    
     21 Mg    c    0.750000 *  0.000000 *  0.250000 *   2.00000    1.000000    
     22 Mg    c    0.750000 *  0.000000 *  0.750000 *   2.00000    1.000000    
     23 Mg    c    0.750000 *  0.500000 *  0.250000 *   2.00000    1.000000    
     24 Mg    c    0.750000 *  0.500000 *  0.750000 *   2.00000    1.000000    
     25 Mg    c    0.250000 *  0.250000 *  0.000000 *   2.00000    1.000000    
     26 Mg    c    0.250000 *  0.250000 *  0.500000 *   2.00000    1.000000    
     27 Mg    c    0.250000 *  0.750000 *  0.000000 *   2.00000    1.000000    
     28 Mg    c    0.250000 *  0.750000 *  0.500000 *   2.00000    1.000000    
     29 Mg    c    0.750000 *  0.250000 *  0.000000 *   2.00000    1.000000    
     30 Mg    c    0.750000 *  0.250000 *  0.500000 *   2.00000    1.000000    
     31 Mg    c    0.750000 *  0.750000 *  0.000000 *   2.00000    1.000000    
     32 Mg    c    0.750000 *  0.750000 *  0.500000 *   2.00000    1.000000    
     33 O     c    0.250000 *  0.250000 *  0.250000 *  -2.00000    1.000000    
     34 O     c    0.250000 *  0.250000 *  0.750000 *  -2.00000    1.000000    
     35 O     c    0.250000 *  0.750000 *  0.250000 *  -2.00000    1.000000    
     36 O     c    0.250000 *  0.750000 *  0.750000 *  -2.00000    1.000000    
     37 O     c    0.750000 *  0.250000 *  0.250000 *  -2.00000    1.000000    
     38 O     c    0.750000 *  0.250000 *  0.750000 *  -2.00000    1.000000    
     39 O     c    0.750000 *  0.750000 *  0.250000 *  -2.00000    1.000000    
     40 O     c    0.750000 *  0.750000 *  0.750000 *  -2.00000    1.000000    
     41 O     c    0.250000 *  0.000000 *  0.000000 *  -2.00000    1.000000    
     42 O     c    0.250000 *  0.000000 *  0.500000 *  -2.00000    1.000000    
     43 O     c    0.250000 *  0.500000 *  0.000000 *  -2.00000    1.000000    
     44 O     c    0.250000 *  0.500000 *  0.500000 *  -2.00000    1.000000    
     45 O     c    0.750000 *  0.000000 *  0.000000 *  -2.00000    1.000000    
     46 O     c    0.750000 *  0.000000 *  0.500000 *  -2.00000    1.000000    
     47 O     c    0.750000 *  0.500000 *  0.000000 *  -2.00000    1.000000    
     48 O     c    0.750000 *  0.500000 *  0.500000 *  -2.00000    1.000000    
     49 O     c    0.000000 *  0.250000 *  0.000000 *  -2.00000    1.000000    
     50 O     c    0.000000 *  0.250000 *  0.500000 *  -2.00000    1.000000    
     51 O     c    0.000000 *  0.750000 *  0.000000 *  -2.00000    1.000000    
     52 O     c    0.000000 *  0.750000 *  0.500000 *  -2.00000    1.000000    
     53 O     c    0.500000 *  0.250000 *  0.000000 *  -2.00000    1.000000    
     54 O     c    0.500000 *  0.250000 *  0.500000 *  -2.00000    1.000000    
     55 O     c    0.500000 *  0.750000 *  0.000000 *  -2.00000    1.000000    
     56 O     c    0.500000 *  0.750000 *  0.500000 *  -2.00000    1.000000    
     57 O     c    0.000000 *  0.000000 *  0.250000 *  -2.00000    1.000000    
     58 O     c    0.000000 *  0.000000 *  0.750000 *  -2.00000    1.000000    
     59 O     c    0.000000 *  0.500000 *  0.250000 *  -2.00000    1.000000    
     60 O     c    0.000000 *  0.500000 *  0.750000 *  -2.00000    1.000000    
     61 O     c    0.500000 *  0.000000 *  0.250000 *  -2.00000    1.000000    
     62 O     c    0.500000 *  0.000000 *  0.750000 *  -2.00000    1.000000    
     63 O     c    0.500000 *  0.500000 *  0.250000 *  -2.00000    1.000000    
     64 O     c    0.500000 *  0.500000 *  0.750000 *  -2.00000    1.000000    
--------------------------------------------------------------------------------



********************************************************************************
*  General input information                                                   *
********************************************************************************

  Species output for all configurations : 

--------------------------------------------------------------------------------
  Species    Type    Atomic    Atomic    Charge       Radii (Angs)     Library
                     Number     Mass       (e)     Cova   Ionic  VDW   Symbol
--------------------------------------------------------------------------------
    Mg       Core       12      24.31   2.000000   1.100  0.000  1.640          
    O        Core        8      16.00  -2.000000   0.730  0.000  1.360          
--------------------------------------------------------------------------------


  Lattice summation method               =    Ewald          (3-D)
                                         =    Parry          (2-D)
                                         =    Saunders et al (1-D)
  Accuracy factor for lattice sums       =   12.000


  Time limit = Infinity

  Maximum range for interatomic potentials =    100000.000000 Angstroms

  General interatomic potentials :

--------------------------------------------------------------------------------
Atom  Types   Potential         A         B         C         D     Cutoffs(Ang)
  1     2                                                            Min    Max 
--------------------------------------------------------------------------------
O    c Mg   c Buckingham    0.130E+04 0.300      0.00      0.00     0.000 12.000
O    c O    c Buckingham    0.228E+05 0.149      27.9      0.00     0.000 12.000
--------------------------------------------------------------------------------

********************************************************************************
*  Output for configuration   1                                                *
********************************************************************************


  Components of energy : 

--------------------------------------------------------------------------------
  Interatomic potentials     =         215.06168986 eV
  Monopole - monopole (real) =        -891.51679097 eV
  Monopole - monopole (recip)=        -637.95506280 eV
  Monopole - monopole (total)=       -1529.47185377 eV
--------------------------------------------------------------------------------
  Total lattice energy       =       -1314.41016391 eV
--------------------------------------------------------------------------------
  Total lattice energy       =         -126820.4882 kJ/(mole unit cells)
--------------------------------------------------------------------------------

  Equations of motion will be integrated using stochastic algorithm.

********************************************************************************
*  Molecular Dynamics                                                          *
********************************************************************************

  Microcanonical ensemble (NVE) to be used

  No. of mobile ions        =                 64

  No. of degrees of freedom =                189

  Time step                 =           0.001000 ps
  Equilibration time        =           1.000000 ps
  Production time           =           4.000000 ps
  Scaling time              =           1.000000 ps
  Scaling frequency         =           0.001000 ps
  Sampling frequency        =           0.050000 ps
  Write frequency           =           0.050000 ps
  TD-Force start time       =           0.000000 ps
  TD-Field start time       =           0.000000 ps



  Molecular dynamics equilibration :

  ** Time :            0.05000 ps :
     Properties:                   Instantaneous       Averaged
       Kinetic energy    (eV) =       1.234788          1.234788
       Potential energy  (eV) =   -1313.199028      -1313.199028
       Total energy      (eV) =   -1311.964240      -1311.964240
       Temperature       (K)  =     151.630724        151.630724
       Pressure         (GPa) =       1.044949          1.044949
  ** Time :            0.10000 ps :
     Properties:                   Instantaneous       Averaged
       Kinetic energy    (eV) =       1.184448          1.209618
       Potential energy  (eV) =   -1313.149568      -1313.174298
       Total energy      (eV) =   -1311.965120      -1311.964680
       Temperature       (K)  =     145.449089        148.539906
       Pressure         (GPa) =       0.904696          0.974822
  ** Time :            0.15000 ps :
     Properties:                   Instantaneous       Averaged
       Kinetic energy    (eV) =       1.100563          1.173266
       Potential energy  (eV) =   -1313.065074      -1313.137890
       Total energy      (eV) =   -1311.964511      -1311.964623
       Temperature       (K)  =     135.148042        144.075952
       Pressure         (GPa) =       0.958513          0.969386
  ** Time :            0.20000 ps :
     Properties:                   Instantaneous       Averaged
       Kinetic energy    (eV) =       1.008465          1.132066
       Potential energy  (eV) =   -1312.972538      -1313.096552
       Total energy      (eV) =   -1311.964073      -1311.964486
       Temperature       (K)  =     123.838446        139.016575
       Pressure         (GPa) =       1.253686          1.040461
  ** Time :            0.25000 ps :
     Properties:                   Instantaneous       Averaged
       Kinetic energy    (eV) =       1.475736          1.200800
       Potential energy  (eV) =   -1313.441220      -1313.165486
       Total energy      (eV) =   -1311.965484      -1311.964686
       Temperature       (K)  =     181.218946        147.457049
       Pressure         (GPa) =       0.859078          1.004184
  ** Time :            0.30000 ps :
     Properties:                   Instantaneous       Averaged
       Kinetic energy    (eV) =       1.187583          1.198597
       Potential energy  (eV) =   -1313.151928      -1313.163226
       Total energy      (eV) =   -1311.964345      -1311.964629
       Temperature       (K)  =     145.834002        147.186541
       Pressure         (GPa) =       0.817604          0.973088
  ** Time :            0.35000 ps :
     Properties:                   Instantaneous       Averaged
       Kinetic energy    (eV) =       1.150129          1.191673
       Potential energy  (eV) =   -1313.114825      -1313.156311
       Total energy      (eV) =   -1311.964696      -1311.964638
       Temperature       (K)  =     141.234707        146.336279
       Pressure         (GPa) =       1.081502          0.988575
  ** Time :            0.40000 ps :
     Properties:                   Instantaneous       Averaged
       Kinetic energy    (eV) =       1.210044          1.193969
       Potential energy  (eV) =   -1313.174579      -1313.158595
       Total energy      (eV) =   -1311.964535      -1311.964625
       Temperature       (K)  =     148.592199        146.618269
       Pressure         (GPa) =       0.918088          0.979764
  ** Time :            0.45000 ps :
     Properties:                   Instantaneous       Averaged
       Kinetic energy    (eV) =       0.920502          1.163584
       Potential energy  (eV) =   -1312.884941      -1313.128189
       Total energy      (eV) =   -1311.964440      -1311.964605
       Temperature       (K)  =     113.036701        142.886984
       Pressure         (GPa) =       1.120856          0.995441
  ** Time :            0.50000 ps :
     Properties:                   Instantaneous       Averaged
       Kinetic energy    (eV) =       1.205258          1.167752
       Potential energy  (eV) =   -1313.170195      -1313.132390
       Total energy      (eV) =   -1311.964936      -1311.964638
       Temperature       (K)  =     148.004546        143.398740
       Pressure         (GPa) =       1.010489          0.996946
  ** Time :            0.55000 ps :
     Properties:                   Instantaneous       Averaged
       Kinetic energy    (eV) =       1.441220          1.192612
       Potential energy  (eV) =   -1313.406444      -1313.157304
       Total energy      (eV) =   -1311.965225      -1311.964691
       Temperature       (K)  =     176.980346        146.451613
       Pressure         (GPa) =       0.766863          0.976029
  ** Time :            0.60000 ps :
     Properties:                   Instantaneous       Averaged
       Kinetic energy    (eV) =       0.986542          1.175440
       Potential energy  (eV) =   -1312.950986      -1313.140110
       Total energy      (eV) =   -1311.964444      -1311.964671
       Temperature       (K)  =     121.146394        144.342845
       Pressure         (GPa) =       0.972958          0.975773
  ** Time :            0.65000 ps :
     Properties:                   Instantaneous       Averaged
       Kinetic energy    (eV) =       1.320934          1.186632
       Potential energy  (eV) =   -1313.286017      -1313.151334
       Total energy      (eV) =   -1311.965083      -1311.964702
       Temperature       (K)  =     162.209383        145.717194
       Pressure         (GPa) =       0.719746          0.956079
  ** Time :            0.70000 ps :
     Properties:                   Instantaneous       Averaged
       Kinetic energy    (eV) =       1.453971          1.205727
       Potential energy  (eV) =   -1313.418865      -1313.170443
       Total energy      (eV) =   -1311.964894      -1311.964716
       Temperature       (K)  =     178.546210        148.062124
       Pressure         (GPa) =       0.784566          0.943828
  ** Time :            0.75000 ps :
     Properties:                   Instantaneous       Averaged
       Kinetic energy    (eV) =       1.301114          1.212086
       Potential energy  (eV) =   -1313.266143      -1313.176823
       Total energy      (eV) =   -1311.965029      -1311.964737
       Temperature       (K)  =     159.775548        148.843019
       Pressure         (GPa) =       0.993286          0.947125
  ** Time :            0.80000 ps :
     Properties:                   Instantaneous       Averaged
       Kinetic energy    (eV) =       1.060130          1.202589
       Potential energy  (eV) =   -1313.024739      -1313.167318
       Total energy      (eV) =   -1311.964609      -1311.964729
       Temperature       (K)  =     130.182951        147.676764
       Pressure         (GPa) =       0.989440          0.949770
  ** Time :            0.85000 ps :
     Properties:                   Instantaneous       Averaged
       Kinetic energy    (eV) =       0.879269          1.183570
       Potential energy  (eV) =   -1312.843626      -1313.148277
       Total energy      (eV) =   -1311.964358      -1311.964707
       Temperature       (K)  =     107.973322        145.341268
       Pressure         (GPa) =       1.028713          0.954414
  ** Time :            0.90000 ps :
     Properties:                   Instantaneous       Averaged
       Kinetic energy    (eV) =       1.119990          1.180038
       Potential energy  (eV) =   -1313.084675      -1313.144744
       Total energy      (eV) =   -1311.964686      -1311.964706
       Temperature       (K)  =     137.533599        144.907509
       Pressure         (GPa) =       0.959749          0.954710
  ** Time :            0.95000 ps :
     Properties:                   Instantaneous       Averaged
       Kinetic energy    (eV) =       1.299871          1.186345
       Potential energy  (eV) =   -1313.264191      -1313.151031
       Total energy      (eV) =   -1311.964320      -1311.964686
       Temperature       (K)  =     159.622900        145.682003
       Pressure         (GPa) =       0.723905          0.942562
  ** Time :            1.00000 ps :
     Properties:                   Instantaneous       Averaged
       Kinetic energy    (eV) =       0.986908          1.176373
       Potential energy  (eV) =   -1312.951535      -1313.141056
       Total energy      (eV) =   -1311.964627      -1311.964683
       Temperature       (K)  =     121.191350        144.457470
       Pressure         (GPa) =       0.961814          0.943525

  Molecular dynamics production :

  ** Time :            0.05000 ps :
     Properties:                   Instantaneous       Averaged
       Kinetic energy    (eV) =       1.069774          1.069774
       Potential energy  (eV) =   -1313.034070      -1313.034070
       Total energy      (eV) =   -1311.964296      -1311.964296
       Temperature       (K)  =     131.367209        131.367209
       Pressure         (GPa) =       0.936151          0.936151
  ** Time :            0.10000 ps :
     Properties:                   Instantaneous       Averaged
       Kinetic energy    (eV) =       1.237270          1.153522
       Potential energy  (eV) =   -1313.202327      -1313.118199
       Total energy      (eV) =   -1311.965057      -1311.964677
       Temperature       (K)  =     151.935542        141.651376
       Pressure         (GPa) =       1.057719          0.996935
  ** Time :            0.15000 ps :
     Properties:                   Instantaneous       Averaged
       Kinetic energy    (eV) =       1.041590          1.116211
       Potential energy  (eV) =   -1313.006283      -1313.080893
       Total energy      (eV) =   -1311.964693      -1311.964682
       Temperature       (K)  =     127.906234        137.069662
       Pressure         (GPa) =       1.147619          1.047163
  ** Time :            0.20000 ps :
[...]

  Number of irreducible atoms/shells =      12


  Total number atoms/shells =      12

  Dimensionality = 3               :  Bulk   



  Cartesian lattice vectors (Angstroms) :

        4.212000    0.000000    0.000000
        0.000000    4.212000    0.000000
        0.000000    0.000000    4.212000

  Cell parameters (Angstroms/Degrees):

  a =       4.2120    alpha =  90.0000
  b =       4.2120    beta  =  90.0000
  c =       4.2120    gamma =  90.0000

  Initial cell volume =          74.724856 Angs**3

  Temperature of configuration =  0.000     K 

  Pressure of configuration =         0.000 GPa 

  Fractional coordinates of asymmetric unit :

--------------------------------------------------------------------------------
   No.  Atomic       x           y          z         Charge      Occupancy
        Label      (Frac)      (Frac)     (Frac)        (e)         (Frac)  
--------------------------------------------------------------------------------
      1 O     c    0.500000    0.500000    0.500000     0.86902    1.000000    
      2 O     c    0.500000    0.000000    0.000000     0.86902    1.000000    
      3 O     c    0.000000    0.500000    0.000000     0.86902    1.000000    
      4 O     c    0.000000    0.000000    0.500000     0.86902    1.000000    
      5 Mg    c    0.000000    0.000000    0.000000     2.00000    1.000000    
      6 Mg    c    0.000000    0.500000    0.500000     2.00000    1.000000    
      7 Mg    c    0.500000    0.000000    0.500000     2.00000    1.000000    
      8 Mg    c    0.500000    0.500000    0.000000     2.00000    1.000000    
      9 O     s    0.500000    0.500000    0.500000    -2.86902    1.000000    
     10 O     s    0.500000    0.000000    0.000000    -2.86902    1.000000    
     11 O     s    0.000000    0.500000    0.000000    -2.86902    1.000000    
     12 O     s    0.000000    0.000000    0.500000    -2.86902    1.000000    
--------------------------------------------------------------------------------



********************************************************************************
*  General input information                                                   *
********************************************************************************

  Species output for all configurations : 

--------------------------------------------------------------------------------
  Species    Type    Atomic    Atomic    Charge       Radii (Angs)     Library
                     Number     Mass       (e)     Cova   Ionic  VDW   Symbol
--------------------------------------------------------------------------------
    O        Core        8      16.00   0.869020   0.730  0.000  1.360          
    Mg       Core       12      24.31   2.000000   1.100  0.000  1.640          
    O        Shell       8       0.00  -2.869020   0.730  0.000  1.360          
--------------------------------------------------------------------------------


  Lattice summation method               =    Ewald          (3-D)
                                         =    Parry          (2-D)
                                         =    Saunders et al (1-D)
  Accuracy factor for lattice sums       =   12.000


  Time limit = Infinity

  Maximum range for interatomic potentials =    100000.000000 Angstroms

  General interatomic potentials :

--------------------------------------------------------------------------------
Atom  Types   Potential         A         B         C         D     Cutoffs(Ang)
  1     2                                                            Min    Max 
--------------------------------------------------------------------------------
Mg   c O    s Buckingham    0.128E+04 0.300      0.00      0.00     0.000  5.000
O    s O    s Buckingham    0.128E+04 0.300      27.9      0.00     0.000  5.000
O    c O    s Spring (c-s)   74.9      0.00      0.00      0.00     0.000  0.800
--------------------------------------------------------------------------------


!!!!!!!!!!!!!!!!!!!!!!!!!!!!!!!!!!!!!!!!!!!!!!!!!!!!!!!!!!!!!!!!!!!!!!!!!!!!!!!!
!! ERROR : second derivatives unavailable in parallel
!!!!!!!!!!!!!!!!!!!!!!!!!!!!!!!!!!!!!!!!!!!!!!!!!!!!!!!!!!!!!!!!!!!!!!!!!!!!!!!!


 Program terminated by processor     0 in        methodok

*******************************************
mpirun -np 16 gulp < ./example8.gin | tee ./example8.got
*******************************************
********************************************************************************
*                       GENERAL UTILITY LATTICE PROGRAM                        *
*                                 Julian Gale                                  *
*                      Nanochemistry Research Institute                        *
*                           Department of Chemistry                            *
*                    Curtin University, Western Australia                      *
********************************************************************************
* Version = 4.4.2 * Last modified = 20th June 2016                             *
********************************************************************************
*  optimise     - perform optimisation run                                     *
*  bulk_noopt   - do not optimise during bulk calculation                      *
*  property     - calculate properties for final geometry                      *
*  defect       - perform defect calculation after bulk run                    *
*  molecule     - molecule option activated, Coulomb subtract within molecule  *
*  conjugate    - use conjugate gradients minimiser                            *
********************************************************************************
* Vacancy of SO4 2- in BaSO4 : example of molecular defect calculation         *
********************************************************************************


  Job Started  at 16:44.25 21st December   2016                               

  Number of CPUs =    16

  Host name      = sharc-node044.shef.ac.uk                


  Total number of configurations input =   1

********************************************************************************
*  Input for Configuration =   1                                               *
********************************************************************************

  Formula = Ba4S4O16                                                    

  Number of irreducible atoms/shells =       8


  Total number atoms/shells =      40

  Dimensionality = 3               :  Bulk   


  Symmetry :

  Crystal family                   :  Orthorhombic
  Crystal class  (Groth - 1921)    :  Orthorhombic Bipyramidal             

  Space group (centrosymmetric)    :  P N M A         

  Patterson group                  :  P m m m  

  Cartesian lattice vectors (Angstroms) :

        8.849359    0.000000    0.000000
        0.000000    5.511278    0.000000
        0.000000    0.000000    7.122216

  Cell parameters (Angstroms/Degrees):

  a =       8.8494    alpha =  90.0000
  b =       5.5113    beta  =  90.0000
  c =       7.1222    gamma =  90.0000

  Initial cell volume =         347.359573 Angs**3

  Temperature of configuration =  0.000     K 

  Pressure of configuration =         0.000 GPa 

  Fractional coordinates of asymmetric unit :

--------------------------------------------------------------------------------
   No.  Atomic       x           y          z         Charge      Occupancy
        Label      (Frac)      (Frac)     (Frac)        (e)         (Frac)  
--------------------------------------------------------------------------------
      1 Ba    c    0.184032    0.250000    0.158717     2.00000    1.000000    
      2 S     c    0.442932    0.750000    0.185592     1.56000    1.000000    
      3 O     c    0.597632    0.750000    0.101962     0.56000    1.000000    
      4 O     c    0.318384    0.750000    0.040682     0.56000    1.000000    
      5 O     c    0.424643    0.971129    0.309411     0.56000    1.000000    
      6 O     s    0.598916    0.750000    0.101520    -1.45000    1.000000    
      7 O     s    0.319567    0.750000    0.039854    -1.45000    1.000000    
      8 O     s    0.425158    0.970631    0.308700    -1.45000    1.000000    
--------------------------------------------------------------------------------



  Molecule list generated from bond lengths :

  Total number of molecules =     4

--------------------------------------------------------------------------------
Molecule No./:  Atoms
Periodicity  :  
--------------------------------------------------------------------------------
     1  0    : S    c     5 O    c     9 O    c    13 O    c    17 O    c    24
             : O    s    25 O    s    29 O    s    33 O    s    40
     2  0    : S    c     6 O    c    10 O    c    14 O    c    18 O    c    23
             : O    s    26 O    s    30 O    s    34 O    s    39
     3  0    : S    c     7 O    c    11 O    c    15 O    c    19 O    c    22
             : O    s    27 O    s    31 O    s    35 O    s    38
     4  0    : S    c     8 O    c    12 O    c    16 O    c    20 O    c    21
             : O    s    28 O    s    32 O    s    36 O    s    37
--------------------------------------------------------------------------------


********************************************************************************
*  General input information                                                   *
********************************************************************************

  Species output for all configurations : 

--------------------------------------------------------------------------------
  Species    Type    Atomic    Atomic    Charge       Radii (Angs)     Library
                     Number     Mass       (e)     Cova   Ionic  VDW   Symbol
--------------------------------------------------------------------------------
    Ba       Core       56     137.33   2.000000   0.222  0.000  2.000          
    S        Core       16      32.07   1.560000   1.020  0.000  1.700          
    O        Core        8      16.00   0.560000   0.730  0.000  1.360          
    O        Shell       8       0.00  -1.450000   0.730  0.000  1.360          
--------------------------------------------------------------------------------


  Lattice summation method               =    Ewald          (3-D)
                                         =    Parry          (2-D)
                                         =    Saunders et al (1-D)
  Accuracy factor for lattice sums       =   12.000


  Time limit = Infinity

  Maximum range for interatomic potentials =    100000.000000 Angstroms

  C6 terms to be calculated in real/reciprocal space by one-centre decomposition

  General interatomic potentials :

--------------------------------------------------------------------------------
Atom  Types   Potential         A         B         C         D     Cutoffs(Ang)
  1     2                                                            Min    Max 
--------------------------------------------------------------------------------
Ba   c O    s Buckingham    0.400E+04 0.291      0.00      0.00     0.000  8.000
O    c O    s Spring (c-s)   15.0      0.00      0.00      0.00     0.000  0.800
--------------------------------------------------------------------------------

  Intramolecular potentials :

--------------------------------------------------------------------------------
Atom  Types   Potential         A         B         C         D     Cutoffs(Ang)
  1     2                                                            Min    Max 
--------------------------------------------------------------------------------
S    c O    s Morse          4.76      2.13      1.53      0.00     0.000  1.800
--------------------------------------------------------------------------------

  Intermolecular potentials :

--------------------------------------------------------------------------------
Atom  Types   Potential         A         B         C         D     Cutoffs(Ang)
  1     2                                                            Min    Max 
--------------------------------------------------------------------------------
O    s O    s Buckingham    0.150E+06 0.198      28.0      0.00     2.700 16.000
--------------------------------------------------------------------------------

  General Three-body potentials :

  Harmonic form:

--------------------------------------------------------------------------------
Atom    Atom    Atom           Force Constants            Theta     Cutoffs  
  1       2       3     (eVrad**-2/eVrad**-3/eVrad**-4)   (deg)  1-2  1-3  2-3
--------------------------------------------------------------------------------
S     c O     s O     s  7.750        0.0000    0.0000   109.470 0.00 0.00 0.00
                                                                 1.80 1.80 3.20
--------------------------------------------------------------------------------


!!!!!!!!!!!!!!!!!!!!!!!!!!!!!!!!!!!!!!!!!!!!!!!!!!!!!!!!!!!!!!!!!!!!!!!!!!!!!!!!
!! ERROR : second derivatives unavailable in parallel
!!!!!!!!!!!!!!!!!!!!!!!!!!!!!!!!!!!!!!!!!!!!!!!!!!!!!!!!!!!!!!!!!!!!!!!!!!!!!!!!


 Program terminated by processor     0 in        methodok

*******************************************
mpirun -np 16 gulp < ./example9.gin | tee ./example9.got
*******************************************
********************************************************************************
*                       GENERAL UTILITY LATTICE PROGRAM                        *
*                                 Julian Gale                                  *
*                      Nanochemistry Research Institute                        *
*                           Department of Chemistry                            *
*                    Curtin University, Western Australia                      *
********************************************************************************
* Version = 4.4.2 * Last modified = 20th June 2016                             *
********************************************************************************
*  fit          - perform fitting run                                          *
*  optimise     - perform optimisation run after fitting                       *
*  conp         - constant pressure calculation                                *
*  property     - calculate properties for final geometry                      *
*  phonon       - calculate phonons for final geometry                         *
*  compare      - compare initial and final structures                         *
*  conjugate    - use conjugate gradients minimiser                            *
********************************************************************************

  Job Started  at 16:44.36 21st December   2016                               

  Number of CPUs =    16

  Host name      = sharc-node044.shef.ac.uk                


  Total number of configurations input =   1

********************************************************************************
*  Input for Configuration =   1                                               *
********************************************************************************

  Formula = MgO                                                         

  Number of irreducible atoms/shells =       3


  Total number atoms/shells =       3

  Dimensionality = 3               :  Bulk   


  Symmetry :

  Crystal family                   :  Cubic       
  Crystal class  (Groth - 1921)    :  Cubic Hexakisoctahedral              

  Space group (centrosymmetric)    :  F M 3 M         

  Patterson group                  :  F m -3 m 

  Cartesian lattice vectors (Angstroms) :

        0.000000    2.106000    2.106000
        2.106000    0.000000    2.106000
        2.106000    2.106000    0.000000

  Primitive cell parameters :            Full cell parameters :

  a =   2.9783    alpha =  60.0000       a =   4.2120    alpha =  90.0000
  b =   2.9783    beta  =  60.0000       b =   4.2120    beta  =  90.0000
  c =   2.9783    gamma =  60.0000       c =   4.2120    gamma =  90.0000

  Initial volumes (Angstroms**3):

  Primitive cell =          18.681214    Full cell =          74.724856

  Temperature of configuration =  0.000     K 

  Pressure of configuration =         0.000 GPa 

  Fractional coordinates of asymmetric unit :

--------------------------------------------------------------------------------
   No.  Atomic       x           y          z         Charge      Occupancy
        Label      (Frac)      (Frac)     (Frac)        (e)         (Frac)  
--------------------------------------------------------------------------------
      1 Mg    c    0.000000    0.000000    0.000000     2.00000    1.000000    
      2 O     c    0.500000    0.500000    0.500000     0.80000    1.000000    
      3 O     bs   0.500000    0.500000    0.500000    -2.80000    1.000000    
--------------------------------------------------------------------------------


  Constraints : 

--------------------------------------------------------------------------------
  Constraint no.      Unconstrained     Constrained    Coefficient    Offset
                         Variable         Variable
--------------------------------------------------------------------------------
           1              Strain 1        Strain 2       1.00000      0.0000
           2              Strain 1        Strain 3       1.00000      0.0000
--------------------------------------------------------------------------------


********************************************************************************
*  General input information                                                   *
********************************************************************************

  Species output for all configurations : 

--------------------------------------------------------------------------------
  Species    Type    Atomic    Atomic    Charge       Radii (Angs)     Library
                     Number     Mass       (e)     Cova   Ionic  VDW   Symbol
--------------------------------------------------------------------------------
    Mg       Core       12      24.31   2.000000   1.100  0.000  1.640          
    O        Core        8      16.00   0.800000   0.730  0.000  1.360          
    O        BShell      8       0.00  -2.800000   0.730  1.125  1.360          
--------------------------------------------------------------------------------


  Lattice summation method               =    Ewald          (3-D)
                                         =    Parry          (2-D)
                                         =    Saunders et al (1-D)
  Accuracy factor for lattice sums       =   12.000


  Time limit = Infinity

  Maximum range for interatomic potentials =    100000.000000 Angstroms

  General interatomic potentials :

--------------------------------------------------------------------------------
Atom  Types   Potential         A         B         C         D     Cutoffs(Ang)
  1     2                                                            Min    Max 
--------------------------------------------------------------------------------
Mg   c O    s Buckingham     25.9     0.304      0.00      0.00     0.000 10.000
O    c O    s Spring (c-s)   45.2      0.00      0.00      0.00     0.000  0.800
O    s O    s BSM            315.      1.20      0.00      0.00     0.000  0.100
O    s O    s Buckingham     0.00     0.300      36.0      0.00     0.000 10.000
--------------------------------------------------------------------------------


!!!!!!!!!!!!!!!!!!!!!!!!!!!!!!!!!!!!!!!!!!!!!!!!!!!!!!!!!!!!!!!!!!!!!!!!!!!!!!!!
!! ERROR : second derivatives unavailable in parallel
!!!!!!!!!!!!!!!!!!!!!!!!!!!!!!!!!!!!!!!!!!!!!!!!!!!!!!!!!!!!!!!!!!!!!!!!!!!!!!!!


 Program terminated by processor     0 in        methodok

